# vtk DataFile Version 4.2
vtk output
ASCII
DATASET RECTILINEAR_GRID
DIMENSIONS 1001 101 1
X_COORDINATES 1001 double
0 0.01 0.02 0.03 0.04 0.05 0.06 0.07 0.08 
0.09 0.1 0.11 0.12 0.13 0.14 0.15 0.16 0.17 
0.18 0.19 0.2 0.21 0.22 0.23 0.24 0.25 0.26 
0.27 0.28 0.29 0.3 0.31 0.32 0.33 0.34 0.35 
0.36 0.37 0.38 0.39 0.4 0.41 0.42 0.43 0.44 
0.45 0.46 0.47 0.48 0.49 0.5 0.51 0.52 0.53 
0.54 0.55 0.56 0.57 0.58 0.59 0.6 0.61 0.62 
0.63 0.64 0.65 0.66 0.67 0.68 0.69 0.7 0.71 
0.72 0.73 0.74 0.75 0.76 0.77 0.78 0.79 0.8 
0.81 0.82 0.83 0.84 0.85 0.86 0.87 0.88 0.89 
0.9 0.91 0.92 0.93 0.94 0.95 0.96 0.97 0.98 
0.99 1 1.01 1.02 1.03 1.04 1.05 1.06 1.07 
1.08 1.09 1.1 1.11 1.12 1.13 1.14 1.15 1.16 
1.17 1.18 1.19 1.2 1.21 1.22 1.23 1.24 1.25 
1.26 1.27 1.28 1.29 1.3 1.31 1.32 1.33 1.34 
1.35 1.36 1.37 1.38 1.39 1.4 1.41 1.42 1.43 
1.44 1.45 1.46 1.47 1.48 1.49 1.5 1.51 1.52 
1.53 1.54 1.55 1.56 1.57 1.58 1.59 1.6 1.61 
1.62 1.63 1.64 1.65 1.66 1.67 1.68 1.69 1.7 
1.71 1.72 1.73 1.74 1.75 1.76 1.77 1.78 1.79 
1.8 1.81 1.82 1.83 1.84 1.85 1.86 1.87 1.88 
1.89 1.9 1.91 1.92 1.93 1.94 1.95 1.96 1.97 
1.98 1.99 2 2.01 2.02 2.03 2.04 2.05 2.06 
2.07 2.08 2.09 2.1 2.11 2.12 2.13 2.14 2.15 
2.16 2.17 2.18 2.19 2.2 2.21 2.22 2.23 2.24 
2.25 2.26 2.27 2.28 2.29 2.3 2.31 2.32 2.33 
2.34 2.35 2.36 2.37 2.38 2.39 2.4 2.41 2.42 
2.43 2.44 2.45 2.46 2.47 2.48 2.49 2.5 2.51 
2.52 2.53 2.54 2.55 2.56 2.57 2.58 2.59 2.6 
2.61 2.62 2.63 2.64 2.65 2.66 2.67 2.68 2.69 
2.7 2.71 2.72 2.73 2.74 2.75 2.76 2.77 2.78 
2.79 2.8 2.81 2.82 2.83 2.84 2.85 2.86 2.87 
2.88 2.89 2.9 2.91 2.92 2.93 2.94 2.95 2.96 
2.97 2.98 2.99 3 3.01 3.02 3.03 3.04 3.05 
3.06 3.07 3.08 3.09 3.1 3.11 3.12 3.13 3.14 
3.15 3.16 3.17 3.18 3.19 3.2 3.21 3.22 3.23 
3.24 3.25 3.26 3.27 3.28 3.29 3.3 3.31 3.32 
3.33 3.34 3.35 3.36 3.37 3.38 3.39 3.4 3.41 
3.42 3.43 3.44 3.45 3.46 3.47 3.48 3.49 3.5 
3.51 3.52 3.53 3.54 3.55 3.56 3.57 3.58 3.59 
3.6 3.61 3.62 3.63 3.64 3.65 3.66 3.67 3.68 
3.69 3.7 3.71 3.72 3.73 3.74 3.75 3.76 3.77 
3.78 3.79 3.8 3.81 3.82 3.83 3.84 3.85 3.86 
3.87 3.88 3.89 3.9 3.91 3.92 3.93 3.94 3.95 
3.96 3.97 3.98 3.99 4 4.01 4.02 4.03 4.04 
4.05 4.06 4.07 4.08 4.09 4.1 4.11 4.12 4.13 
4.14 4.15 4.16 4.17 4.18 4.19 4.2 4.21 4.22 
4.23 4.24 4.25 4.26 4.27 4.28 4.29 4.3 4.31 
4.32 4.33 4.34 4.35 4.36 4.37 4.38 4.39 4.4 
4.41 4.42 4.43 4.44 4.45 4.46 4.47 4.48 4.49 
4.5 4.51 4.52 4.53 4.54 4.55 4.56 4.57 4.58 
4.59 4.6 4.61 4.62 4.63 4.64 4.65 4.66 4.67 
4.68 4.69 4.7 4.71 4.72 4.73 4.74 4.75 4.76 
4.77 4.78 4.79 4.8 4.81 4.82 4.83 4.84 4.85 
4.86 4.87 4.88 4.89 4.9 4.91 4.92 4.93 4.94 
4.95 4.96 4.97 4.98 4.99 5 5.01 5.02 5.03 
5.04 5.05 5.06 5.07 5.08 5.09 5.1 5.11 5.12 
5.13 5.14 5.15 5.16 5.17 5.18 5.19 5.2 5.21 
5.22 5.23 5.24 5.25 5.26 5.27 5.28 5.29 5.3 
5.31 5.32 5.33 5.34 5.35 5.36 5.37 5.38 5.39 
5.4 5.41 5.42 5.43 5.44 5.45 5.46 5.47 5.48 
5.49 5.5 5.51 5.52 5.53 5.54 5.55 5.56 5.57 
5.58 5.59 5.6 5.61 5.62 5.63 5.64 5.65 5.66 
5.67 5.68 5.69 5.7 5.71 5.72 5.73 5.74 5.75 
5.76 5.77 5.78 5.79 5.8 5.81 5.82 5.83 5.84 
5.85 5.86 5.87 5.88 5.89 5.9 5.91 5.92 5.93 
5.94 5.95 5.96 5.97 5.98 5.99 6 6.01 6.02 
6.03 6.04 6.05 6.06 6.07 6.08 6.09 6.1 6.11 
6.12 6.13 6.14 6.15 6.16 6.17 6.18 6.19 6.2 
6.21 6.22 6.23 6.24 6.25 6.26 6.27 6.28 6.29 
6.3 6.31 6.32 6.33 6.34 6.35 6.36 6.37 6.38 
6.39 6.4 6.41 6.42 6.43 6.44 6.45 6.46 6.47 
6.48 6.49 6.5 6.51 6.52 6.53 6.54 6.55 6.56 
6.57 6.58 6.59 6.6 6.61 6.62 6.63 6.64 6.65 
6.66 6.67 6.68 6.69 6.7 6.71 6.72 6.73 6.74 
6.75 6.76 6.77 6.78 6.79 6.8 6.81 6.82 6.83 
6.84 6.85 6.86 6.87 6.88 6.89 6.9 6.91 6.92 
6.93 6.94 6.95 6.96 6.97 6.98 6.99 7 7.01 
7.02 7.03 7.04 7.05 7.06 7.07 7.08 7.09 7.1 
7.11 7.12 7.13 7.14 7.15 7.16 7.17 7.18 7.19 
7.2 7.21 7.22 7.23 7.24 7.25 7.26 7.27 7.28 
7.29 7.3 7.31 7.32 7.33 7.34 7.35 7.36 7.37 
7.38 7.39 7.4 7.41 7.42 7.43 7.44 7.45 7.46 
7.47 7.48 7.49 7.5 7.51 7.52 7.53 7.54 7.55 
7.56 7.57 7.58 7.59 7.6 7.61 7.62 7.63 7.64 
7.65 7.66 7.67 7.68 7.69 7.7 7.71 7.72 7.73 
7.74 7.75 7.76 7.77 7.78 7.79 7.8 7.81 7.82 
7.83 7.84 7.85 7.86 7.87 7.88 7.89 7.9 7.91 
7.92 7.93 7.94 7.95 7.96 7.97 7.98 7.99 8 
8.01 8.02 8.03 8.04 8.05 8.06 8.07 8.08 8.09 
8.1 8.11 8.12 8.13 8.14 8.15 8.16 8.17 8.18 
8.19 8.2 8.21 8.22 8.23 8.24 8.25 8.26 8.27 
8.28 8.29 8.3 8.31 8.32 8.33 8.34 8.35 8.36 
8.37 8.38 8.39 8.4 8.41 8.42 8.43 8.44 8.45 
8.46 8.47 8.48 8.49 8.5 8.51 8.52 8.53 8.54 
8.55 8.56 8.57 8.58 8.59 8.6 8.61 8.62 8.63 
8.64 8.65 8.66 8.67 8.68 8.69 8.7 8.71 8.72 
8.73 8.74 8.75 8.76 8.77 8.78 8.79 8.8 8.81 
8.82 8.83 8.84 8.85 8.86 8.87 8.88 8.89 8.9 
8.91 8.92 8.93 8.94 8.95 8.96 8.97 8.98 8.99 
9 9.01 9.02 9.03 9.04 9.05 9.06 9.07 9.08 
9.09 9.1 9.11 9.12 9.13 9.14 9.15 9.16 9.17 
9.18 9.19 9.2 9.21 9.22 9.23 9.24 9.25 9.26 
9.27 9.28 9.29 9.3 9.31 9.32 9.33 9.34 9.35 
9.36 9.37 9.38 9.39 9.4 9.41 9.42 9.43 9.44 
9.45 9.46 9.47 9.48 9.49 9.5 9.51 9.52 9.53 
9.54 9.55 9.56 9.57 9.58 9.59 9.6 9.61 9.62 
9.63 9.64 9.65 9.66 9.67 9.68 9.69 9.7 9.71 
9.72 9.73 9.74 9.75 9.76 9.77 9.78 9.79 9.8 
9.81 9.82 9.83 9.84 9.85 9.86 9.87 9.88 9.89 
9.9 9.91 9.92 9.93 9.94 9.95 9.96 9.97 9.98 
9.99 10 
Y_COORDINATES 101 double
0 0.01 0.02 0.03 0.04 0.05 0.06 0.07 0.08 
0.09 0.1 0.11 0.12 0.13 0.14 0.15 0.16 0.17 
0.18 0.19 0.2 0.21 0.22 0.23 0.24 0.25 0.26 
0.27 0.28 0.29 0.3 0.31 0.32 0.33 0.34 0.35 
0.36 0.37 0.38 0.39 0.4 0.41 0.42 0.43 0.44 
0.45 0.46 0.47 0.48 0.49 0.5 0.51 0.52 0.53 
0.54 0.55 0.56 0.57 0.58 0.59 0.6 0.61 0.62 
0.63 0.64 0.65 0.66 0.67 0.68 0.69 0.7 0.71 
0.72 0.73 0.74 0.75 0.76 0.77 0.78 0.79 0.8 
0.81 0.82 0.83 0.84 0.85 0.86 0.87 0.88 0.89 
0.9 0.91 0.92 0.93 0.94 0.95 0.96 0.97 0.98 
0.99 1 
Z_COORDINATES 1 double
0 
POINT_DATA 101101
SCALARS Density double
LOOKUP_TABLE default
2.2732448019 2.2731430741 2.2729901425 2.272811536 2.2726229696 2.2724379783 2.2722654348 2.2721039551 2.2719325746 
2.2717013576 2.2713353803 2.2707797838 2.2702102628 2.2699051643 2.2709311806 2.2752191272 2.2857422336 2.3010650178 
1 1 2.1008433832 2.1215460794 2.1216592703 2.114818845 2.1066088004 2.0936282699 2.0955524726 
2.1159374689 2.1111126527 2.1045473235 2.1256327219 2.1537461731 2.1580117363 2.1478396459 2.1484922991 2.1635502673 
2.1779508631 2.1913151704 2.1991780749 2.1916371395 2.1747938469 2.1685003082 2.1787934315 2.1934692955 2.2032990629 
2.2061090447 2.2004024014 2.1907658062 2.1890071983 2.1978737275 2.2069544804 2.2080432706 2.2022974993 2.1945056362 
2.1895787996 2.1920873014 2.1999601255 2.2047695883 2.204249336 2.2009233129 2.1978118172 2.1950312958 2.1948210457 
2.1982989515 2.2012369731 2.2003038156 2.1972288979 2.1949024392 2.1943847025 2.1944291152 2.1932199952 2.190777998 
2.1896447845 2.1903956066 2.1906147341 2.1891432393 2.1871701477 2.1864668919 2.1869364522 2.1870844833 2.1866215522 
2.1860745088 2.1859674993 2.1864811215 2.1876737746 2.1893519331 2.1909100502 2.1919097305 2.1927726784 2.1939926921 
2.1952087835 2.1965462093 2.1980083769 2.1995069554 2.2007364386 2.2016115216 2.2022454597 2.2027643855 2.2032243717 
2.2036308026 2.2039312618 2.2732448116 2.2731430282 2.2729899913 2.2728112077 2.2726224531 2.2724374977 2.2722657387 
2.2721066315 2.2719400261 2.2717155995 2.2713543533 2.2707901682 2.2701798294 2.269775728 2.2706170167 2.2746232728 
2.2848964182 2.3011306618 1 1 2.1034086586 2.1203154138 2.1222351001 2.1159270892 2.1084008817 
2.0964749746 2.097508347 2.1166289906 2.11202419 2.1037169437 2.1235175527 2.1524764172 2.1581451377 2.1481111721 
2.1479385529 2.1624288704 2.1765923874 2.1898007659 2.1982859412 2.1916045097 2.1748341937 2.1677421956 2.1774455016 
2.192208102 2.2025139983 2.2057309992 2.2007894946 2.1911697028 2.1889189634 2.1974296611 2.206756777 2.2084445072 
2.2031123129 2.1953459828 2.1901269163 2.1922192147 2.1999523241 2.2049960729 2.2047646899 2.2015022914 2.1982935377 
2.195366563 2.1949132862 2.1982407365 2.2012892052 2.2005153804 2.1974308424 2.1949578428 2.1943055493 2.1943178237 
2.1931703956 2.1907326296 2.1895130348 2.1902448509 2.1905652771 2.1891973489 2.1872335105 2.1864824468 2.1869541746 
2.1871572948 2.1867394895 2.1861853741 2.1860376179 2.1865037624 2.1876594317 2.1893304645 2.1909172838 2.1919491107 
2.1928102267 2.1940132516 2.1952197091 2.1965482047 2.1980000729 2.1995023934 2.2007474233 2.2016344787 2.2022698605 
2.2027828256 2.2032343794 2.2036354439 2.2039425697 2.2732448266 2.2731429885 2.2729898463 2.2728108798 2.2726219164 
2.2724369516 2.2722659059 2.2721091044 2.2719473144 2.2717300413 2.271374527 2.2708036218 2.2701546103 2.2696532112 
2.2703080395 2.2740190255 2.2839807884 2.3009910086 1 1 2.1067248693 2.11897053 2.1227583365 
2.1169986059 2.1101193648 2.0993806774 2.0997522273 2.1175787814 2.1131015049 2.1030301704 2.1214863819 2.1512091895 
2.1583394928 2.1485097176 2.1475118154 2.1613781924 2.1752756412 2.1882658611 2.1973331503 2.1915361193 2.1749067395 
2.1670463563 2.1761237702 2.1909265236 2.2016712872 2.2055300205 2.2011209623 2.1915429628 2.1888164745 2.1969573961 
2.2065032968 2.2087862231 2.2038967043 2.1961853549 2.1906897273 2.1923639393 2.199935942 2.2051971847 2.2052584218 
2.2020791178 2.1987856634 2.1957192111 2.1950242424 2.198187712 2.2013315102 2.2007178708 2.1976328634 2.1950189233 
2.1942305508 2.1942058595 2.1931199561 2.1906920726 2.1893864452 2.1900920252 2.1905089635 2.1892475094 2.187298382 
2.1865001201 2.1869703967 2.1872274033 2.186856996 2.1862992642 2.1861129305 2.1865319681 2.1876491658 2.1893102682 
2.190923703 2.1919881073 2.1928489918 2.1940354395 2.1953766081 2.1965515806 2.1979924312 2.1994972434 2.2007571927 
2.2016564944 2.2022939715 2.2028014366 2.203244569 2.2036397948 2.203952823 2.2732448468 2.273142955 2.2729897079 
2.2728105534 2.2726213615 2.2724363423 2.2722659358 2.2721113643 2.2719544111 2.2717446275 2.271395825 2.2708200957 
2.2701346916 2.269538018 2.27000535 2.2734093201 2.2830032525 2.3005267444 1 1 2.0952690294 
2.117523968 2.1232326044 2.1180332133 2.1117614962 2.102295222 2.1022550965 2.1188035625 2.1143479677 2.1024975188 
2.1195475856 2.1499411127 2.1585814332 2.1490368743 2.1477595616 2.1604035361 2.1740054427 2.1867165048 2.1963224322 
2.1914313551 2.1750111553 2.1664165886 2.1748344828 2.189629972 2.2007748568 2.2052626227 2.2013969799 2.1918857611 
2.1887001796 2.1964585778 2.2061954399 2.2090670245 2.204647268 2.1970208739 2.191265153 2.1925204888 2.1999109465 
2.2053724867 2.2057287206 2.202651364 2.1992864649 2.1960879023 2.1951532828 2.1981401652 2.201363956 2.2009106655 
2.1978343093 2.1950854774 2.1941599199 2.1940935421 2.193068748 2.1906564365 2.1892655907 2.189937813 2.1904459957 
2.1892934448 2.1873644855 2.1865198875 2.1869850953 2.1872945307 2.1869735943 2.186415735 2.1861931626 2.1865656381 
2.1876430082 2.1892914144 2.1909292915 2.1920265721 2.1928888202 2.1940591712 2.195391034 2.1965563221 2.197985482 
2.1994915284 2.2007657098 2.2016774827 2.2023176986 2.2028201463 2.2032549015 2.2036438387 2.2039619822 2.2732448723 
2.2731429279 2.2729895768 2.2728102298 2.2726207906 2.2724356719 2.2722658282 2.2721134022 2.2719612888 2.2717593018 
2.2714181668 2.2708395297 2.2701201407 2.2694305241 2.2697099975 2.2727970019 2.2819717909 2.2998058481 1 
1 1 2.1160289304 2.1236620742 2.1190311858 2.113326939 2.1051713586 2.1049824889 2.1203128445 
2.115767337 2.1021291489 2.1177085559 2.148668996 2.1588573166 2.1496933086 2.1476236977 2.1595101091 2.1727862875 
2.1851588881 2.1952566873 2.1912896481 2.1751468149 2.1658562412 2.1735838321 2.1883239319 2.1998288515 2.2049302639 
2.2016177888 2.1921983964 2.1885706337 2.1959348868 2.2058347642 2.2092857743 2.2053607034 2.197849656 2.1918511239 
2.192687835 2.1998772845 2.2055216231 2.2061738939 2.2032166009 2.1997941619 2.1964712558 2.1952997022 2.1980983288 
2.2013866481 2.2010931897 2.1980345479 2.1951573042 2.1940938724 2.1939812007 2.1930168466 2.1906257973 2.1891510145 
2.1897829089 2.1903766131 2.1893348974 2.1874315317 2.1865417112 2.1869982568 2.1874230142 2.1870888112 2.1865343298 
2.1862780199 2.1866046518 2.187640975 2.1892739666 2.190934035 2.1920643595 2.1929295541 2.1940843558 2.1954068018 
2.1965624092 2.1979792528 2.199485274 2.2007729429 2.2016973618 2.2023409491 2.202838882 2.2032653369 2.2036475603 
2.2039700121 2.2732449028 2.2731429073 2.2729894534 2.2728099103 2.2726202059 2.2724349432 2.2722655836 2.2721152105 
2.2719679206 2.2717740074 2.2714414679 2.2708618532 2.2701110065 2.2693310757 2.269422978 2.2721848098 2.2808946831 
2.2988479059 1 1 1 2.1145761387 2.1240514978 2.1203516013 2.1148168742 2.1079679517 
2.1078946416 2.122108074 2.1173636641 2.101934631 2.115975599 2.1473899635 2.1591540285 2.1504784202 2.1476270692 
2.1587029911 2.1716223326 2.18359932 2.194138979 2.1911104927 2.1753128049 2.1653681926 2.1723778965 2.1870139383 
2.1988375973 2.2045345712 2.2017836921 2.1924812631 2.1884284861 2.1953880309 2.205422975 2.209441599 2.2060338359 
2.1986688207 2.1924455841 2.1928649171 2.1998348843 2.2056443143 2.2065923717 2.2037724112 2.2003069286 2.1968678522 
2.195462728 2.1980623798 2.2013997253 2.2012649155 2.1982329672 2.1952342054 2.1940326265 2.1938691749 2.1929643332 
2.1906001981 2.1890432241 2.1896280145 2.1903010912 2.1893716301 2.1874992203 2.1865655401 2.1870098766 2.1874864585 
2.1872021799 2.1866545817 2.186367189 2.1866488695 2.1876430671 2.1892579818 2.1909379213 2.1921013276 2.1929710327 
2.1941108964 2.195423854 2.1965698169 2.1979737678 2.1994785079 2.2007788654 2.2017160542 2.2023636319 2.2028575709 
2.2032758351 2.2036509455 2.203976882 2.2732449382 2.2731428932 2.2729893382 2.2728095961 2.2726196096 2.272434159 
2.2722652028 2.2721167819 2.2719742809 2.2717886876 2.2714656398 2.2708869847 2.2701073194 2.2692399898 2.2691452327 
2.2715753639 2.2797802093 2.2975625827 1 1 1 2.113152978 2.1244063437 2.1212848268 
2.1162333872 2.1106521236 2.1109470759 2.1241823209 2.1191411215 2.1019228312 2.1143539848 2.14610161 2.1594595986 
2.1513899433 2.1477721304 2.1579870955 2.1705173877 2.1820442008 2.1929725288 2.1908934681 2.1755079371 2.1649548379 
2.1712225772 2.1857055512 2.197805566 2.2040773305 2.2018950542 2.1927348286 2.1882744712 2.1948197402 2.2049619151 
2.2095338949 2.2066636367 2.1994754987 2.1930464952 2.1930506501 2.1997836587 2.2057403523 2.2069827087 2.2043164016 
2.2008228981 2.1972762374 2.1956415263 2.1980324391 2.2014033546 2.2014253615 2.1984289749 2.1953159845 2.1938641112 
2.1937578145 2.1929112961 2.19057965 2.188942689 2.1894738339 2.1902197404 2.1894034283 2.1875672423 2.1865913089 
2.187019958 2.1875459375 2.187313242 2.186776015 2.1864603384 2.1866981321 2.1876492702 2.1892435104 2.1909409399 
2.1921373381 2.193013092 2.1941386903 2.1954421279 2.1965785154 2.1979690481 2.1994712596 2.2007834558 2.2017334873 
2.2023856585 2.2028761402 2.2032863555 2.2036539817 2.2039825657 2.2732449785 2.2731428857 2.2729892316 2.2728092885 
2.2726190042 2.2724333223 2.2722646874 2.2721181104 2.2719803447 2.2718032854 2.2714905906 2.2709148324 2.2700131634 
2.2691575534 2.2688776472 2.270971155 2.2786362457 2.2960932852 1 1 1 2.1118885139 
2.1247326742 2.1221853448 2.1175790723 2.1132001132 2.1140917031 2.1265204908 2.121103756 2.1021019001 2.1128481282 
2.1448021799 2.1597635898 2.1524235378 2.1480606133 2.1573671238 2.1694749126 2.1804999911 2.1917607131 2.1906382592 
2.175730763 2.1646180815 2.1701235366 2.1844043292 2.1967373409 2.2035604774 2.2019523022 2.1929596148 2.1881094004 
2.1942317634 2.2044535552 2.2095623338 2.2072472433 2.20026684 2.193651838 2.1932439338 2.1997235082 2.2058095956 
2.2073435869 2.2048462162 2.201340168 2.1976949261 2.1958352084 2.1980085719 2.2013977265 2.2015740929 2.1986219987 
2.1954024465 2.1938060962 2.1936474794 2.1928578325 2.1905641331 2.1888498373 2.1893210695 2.1901329047 2.1894301021 
2.1876352813 2.1866189382 2.1870285121 2.1876012314 2.1874215499 2.1868981477 2.18655712 2.186752262 2.187659555 
2.1892305961 2.1909430822 2.192172257 2.1930555662 2.1941676295 2.1954615564 2.1965884704 2.1979651114 2.1994635607 
2.2007866982 2.2017495932 2.2024069426 2.2028945175 2.2032968574 2.2036566575 2.2039870417 2.2732450235 2.2731428849 
2.2729891342 2.2728089886 2.2726183918 2.2724324363 2.2722640394 2.2721191908 2.2719860886 2.2718177443 2.2715162253 
2.2709452944 2.2700208427 2.2690840236 2.2686210516 2.2703745371 2.2774706178 2.2943806888 1 1 
1 2.1108708024 2.125037066 2.1230550803 2.1188568024 2.1155969517 2.1172784621 2.1290999664 2.1232551724 
2.1024793385 2.1114618627 2.1434907597 2.160057261 2.1535724338 2.1484934799 2.1568475171 2.1684980222 2.1789731786 
2.190507065 2.1903446783 2.1759795916 2.1643593344 2.16908614 2.1831158003 2.1956375843 2.2029860887 2.2019559287 
2.193156183 2.1879341572 2.193625867 2.2038999867 2.2095268677 2.2077819781 2.201040022 2.1942596145 2.1934436615 
2.1996543249 2.2063383325 2.2076738164 2.2053595487 2.2018568063 2.1981224065 2.196042837 2.1979907885 2.2013830501 
2.20171072 2.1988114854 2.1954933969 2.1937535199 2.1935385395 2.1928040493 2.1905535982 2.1887650537 2.1891704174 
2.1900409598 2.1894514879 2.1877030161 2.1866483349 2.1870355563 2.1876521408 2.1875266685 2.1870204931 2.1866571697 
2.1868110631 2.1876738775 2.1892192761 2.1909443415 2.1922059551 2.1930982881 2.1941976014 2.1954820676 2.1965996426 
2.1979619724 2.1994554441 2.2007885818 2.2017643096 2.2024274009 2.2029126311 2.2033073003 2.2036589631 2.203990293 
2.2732450729 2.2731291716 2.2729890462 2.2728086976 2.272617775 2.2724315044 2.2722632613 2.2721200189 2.2719914902 
2.2718320082 2.271542446 2.2709782591 2.2700342854 2.2690196275 2.2683762197 2.2697877203 2.2762909633 2.2924402783 
1 1 1 2.1098681329 2.1253270406 2.1238962573 2.1200696062 2.1178352832 2.1204573856 
2.1318915393 2.1255981534 2.1030621094 2.1101987553 2.1421674719 2.1603335441 2.1548272012 2.1490708531 2.1564324013 
2.1675894985 2.1774702415 2.1892152779 2.1900126861 2.1762525094 2.1641795165 2.1681154016 2.1818454319 2.1945110081 
2.2023563756 2.2019064965 2.1933251218 2.1877496924 2.1930038356 2.2033034132 2.2094277327 2.208265366 2.2017922569 
2.1948678489 2.1936487282 2.1995759974 2.2063534928 2.2079723362 2.205854156 2.2023708578 2.1985571431 2.1962634318 
2.1979790463 2.2013595486 2.2018348975 2.1989969005 2.1955886399 2.193706641 2.1934313739 2.1927500642 2.1905479685 
2.1886886779 2.1890225631 2.1899443114 2.18946745 2.1877701227 2.1866793916 2.1870411138 2.1876984869 2.1876281769 
2.1871425622 2.1867601089 2.1868743219 2.187692179 2.1892095808 2.1909447128 2.1922383082 2.1931410897 2.1942284885 
2.1955035858 2.1966119887 2.1979596421 2.1994469446 2.2007891015 2.2017775794 2.2024469534 2.2029304103 2.2033176438 
2.20366089 2.2039923076 2.2732451267 2.2731291845 2.2729889679 2.2728084166 2.272617156 2.2724305304 2.272262356 
2.2721205915 2.2719965284 2.2718460216 2.2715691525 2.2710136053 2.2700534447 2.268964562 2.2681438703 2.2692127686 
2.2751043456 2.2903869053 1 1 1 2.1095689452 2.125610234 2.1247113711 2.1212206068 
2.1199137427 2.1235808836 2.1348604974 2.1281342276 2.1038567603 2.1090624127 2.140833655 2.160586887 2.1561757092 
2.1497919269 2.156125531 2.1667518075 2.175997609 2.1878892131 2.189642411 2.1765474024 2.1640790612 2.1672159355 
2.1805985985 2.1933623472 2.2016736795 2.2011518935 2.1934670373 2.1875570222 2.1923674745 2.2026661447 2.2092654502 
2.2086951502 2.2025207992 2.195474588 2.1938580396 2.199488416 2.2063403797 2.2082382149 2.2063278706 2.2028803502 
2.1989975813 2.1964959759 2.1979732514 2.2013274546 2.2019463226 2.1991777274 2.1956879778 2.1936657162 2.1933263705 
2.1926960066 2.1905471421 2.1886210023 2.1888781772 2.1898433923 2.1894778821 2.1878362765 2.1867119877 2.1870452126 
2.1877401123 2.1877256711 2.1872638659 2.1868655459 2.1869418077 2.1877143866 2.1892015343 2.1909441932 2.1922691979 
2.1931838029 2.1942601699 2.1955260309 2.196625461 2.1979581283 2.1994380979 2.2007882571 2.2017893515 2.2024655234 
2.2029477855 2.2033278479 2.2036624313 2.2039930782 2.2732451845 2.2731292042 2.2729888998 2.2728081466 2.2726165373 
2.2724295178 2.2722613272 2.2721209064 2.2720011836 2.2718597301 2.2715962423 2.2710512028 2.2700782547 2.268918994 
2.2679246668 2.2686515983 2.2739174103 2.2882197267 1 1 1 2.1082982244 2.1258945345 
2.1255031483 2.1223129972 2.121835258 2.1266059555 2.1379677711 2.1308631984 2.1048695256 2.1080567393 2.1394920088 
2.1608130227 2.1576033231 2.1506548551 2.1559302299 2.165987122 2.1745616197 2.1865329095 2.1892341659 2.1768619807 
2.1640579245 2.1663919143 2.179380549 2.192196335 2.2009404685 2.2010052896 2.1935825458 2.187357225 2.1917186136 
2.2019905906 2.2090408274 2.2090693063 2.203222953 2.196077903 2.1940705197 2.1993914788 2.206299101 2.2084706503 
2.2067786131 2.203383302 2.1994421512 2.1967394214 2.1979732618 2.2012870061 2.2020447337 2.1993534661 2.1957912082 
2.193630998 2.193223925 2.1926420179 2.1905509937 2.1885622717 2.1887379111 2.1897386605 2.189482708 2.1879011549 
2.1867459894 2.1870478846 2.1877768813 2.1878187645 2.1873839171 2.1869730772 2.1870132734 2.1877404135 2.189195154 
2.1909427816 2.1922985112 2.1932262606 2.1942925208 2.1955493194 2.1967769896 2.1979574352 2.199428941 2.2007860542 
2.2017995804 2.2024830383 2.2029646889 2.2033378729 2.2036635814 2.2039926023 2.2732452462 2.2731292307 2.272988842 
2.2728078889 2.2726159212 2.2724284708 2.2722601787 2.2721209623 2.2720054375 2.2718730802 2.2716236115 2.2710909127 
2.2701086297 2.26888306 2.2677192189 2.2681059781 2.2727364828 2.2859333159 1 1 1 
2.1066107972 2.126188974 2.1262744874 2.123350034 2.1236055299 2.1294960326 2.1411710985 2.1337826515 2.1061063771 
2.1071861245 2.1381466883 2.1610087112 2.1590933448 2.1516566235 2.1568310055 2.1652973477 2.1731684785 2.1851505954 
2.188788462 2.177193805 2.1641155954 2.1656470343 2.1781963725 2.1910176819 2.2001593367 2.2008102022 2.1936722667 
2.18715144 2.1910591121 2.2012792537 2.2087549545 2.2093860546 2.2038960793 2.1966758896 2.1942851197 2.1992850981 
2.206229827 2.2086689695 2.2072044051 2.2038777293 2.1998892711 2.1969926944 2.1979788902 2.201238443 2.2021299078 
2.1995236325 2.1958981231 2.1936027324 2.1931244395 2.1925882521 2.1905593777 2.1885126822 2.1886023927 2.189630596 
2.1894818827 2.1879644391 2.1867812505 2.1870491646 2.1878086797 2.1879070907 2.1875022325 2.187082289 2.1870884563 
2.1877701591 2.1891904513 2.190940479 2.1923261418 2.1932682968 2.1943254137 2.1955733641 2.1967921599 2.197957564 
2.1994195118 2.2007825034 2.201808227 2.2024994295 2.2029810542 2.2033476801 2.2036643364 2.2039908823 2.2732453115 
2.2731292639 2.2729887948 2.2728076442 2.2726153102 2.2724273933 2.2722589152 2.272120759 2.2720092737 2.27188602 
2.2716511548 2.271132588 2.2701444653 2.2688568667 2.2675280832 2.2675775312 2.2715673789 2.2835919327 1 
1 1 2.1059956773 2.1264976818 2.1270283796 2.1243350408 2.1252318228 2.1322222113 2.1444262132 
2.136887461 2.1075729986 2.1064555508 2.1368033277 2.1611714918 2.1606276668 2.1527929153 2.1568797643 2.1646841513 
2.1718242125 2.1837466998 2.1883060182 2.1775403152 2.1642511101 2.1649844872 2.1770509651 2.1898310553 2.1993330031 
2.2005674518 2.1937368171 2.1869408647 2.1903908647 2.2005347248 2.2084092 2.2096438693 2.2045376033 2.1972666706 
2.1945008262 2.1991692078 2.2061327895 2.208832628 2.2076033804 2.2043616542 2.2003373522 2.197254701 2.1979899078 
2.2011820034 2.2022016591 2.1996877569 2.1960085059 2.1935811563 2.1930283214 2.1925348758 2.1905721306 2.1884723812 
2.1884722229 2.1895196982 2.1894753931 2.188025817 2.1868176135 2.1870490899 2.1878354153 2.1880478829 2.1876183355 
2.1871927589 2.1871670786 2.1878035099 2.1891874313 2.1909372885 2.1923519895 2.1933097475 2.1943587187 2.1955980746 
2.1968082569 2.197958512 2.1994098488 2.2007776206 2.2018152584 2.202514633 2.2029968174 2.2033572314 2.203664694 
2.2039879253 2.2732453802 2.2731293036 2.2729887584 2.2728074137 2.2726147066 2.2724262894 2.2722575413 2.2721202973 
2.2720126771 2.2718984989 2.2716787659 2.2711760737 2.270185638 2.2688404904 2.2673517646 2.2670677389 2.2704153013 
2.2812263987 1 1 1 1 2.1268261984 2.1277677834 2.126025558 2.1267220928 
2.1347637492 2.1476880803 2.1401693178 2.1092746692 2.1058706294 2.135468985 2.1612994697 2.1621875705 2.1540579828 
2.1570427612 2.1641489891 2.170534627 2.1823258644 2.1877877653 2.1778988596 2.1644630683 2.1644069403 2.1759489961 
2.1886410606 2.1984643113 2.2002779405 2.1937768069 2.1867267521 2.1897158084 2.1997596758 2.2080052031 2.2098414874 
2.2051450226 2.1978483974 2.194716669 2.1990437705 2.2060082822 2.2089612092 2.2079737968 2.2048331129 2.2007848025 
2.1975243316 2.1980060477 2.2011179218 2.2022598362 2.1998453834 2.1961221298 2.1935664948 2.1929359817 2.1924820676 
2.1905890741 2.1884414674 2.1883479721 2.1894064821 2.1894632577 2.1880849849 2.18685491 2.1870476988 2.1878570178 
2.1881258109 2.1877317575 2.1873040575 2.1872488489 2.1878403391 2.1891860933 2.1909332153 2.192375961 2.1933504516 
2.194392304 2.1956233579 2.1968252194 2.1979602736 2.1993999912 2.2007714269 2.2018206478 2.2025285894 2.2030119166 
2.2033664897 2.2036646531 2.2039837434 2.273245452 2.2731293496 2.2729887329 2.2728071981 2.2726141128 2.2724251636 
2.2722560626 2.272119579 2.2720156345 2.2719104681 2.271706338 2.2712212077 2.2702320055 2.2688339776 2.2671907172 
2.2665779455 2.269284983 2.2788432683 1 1 1 1 2.1271704773 2.1284954375 
2.1268975549 2.1280844174 2.1371078313 2.1509121948 2.1436163079 2.1112160468 2.1054375784 2.1341520054 2.1613911479 
2.1637545727 2.1554445425 2.1573208714 2.1636931338 2.1693052622 2.1808929515 2.1872348452 2.1782667268 2.1647496526 
2.163916523 2.1748948766 2.1874522241 2.197556228 2.1999426575 2.1937928347 2.1865104074 2.1890359291 2.1989568537 
2.2075448638 2.2099779147 2.2057159153 2.1984192534 2.1949317294 2.1989087857 2.2058566613 2.2090544231 2.2083140469 
2.2052901646 2.201230031 2.1978004659 2.1980270097 2.2010464264 2.2023043206 2.1999960687 2.1962387558 2.1935589581 
2.1927470523 2.1924300181 2.1906100176 2.1884199914 2.188230176 2.1892914757 2.1894455274 2.1881416504 2.1868929625 
2.1870450305 2.1878734381 2.1881978704 2.1878420407 2.1874157498 2.1873334623 2.1878805079 2.1891864309 2.1909282669 
2.1923979701 2.193390251 2.1944260364 2.1956491183 2.1968429829 2.1979628398 2.1993899784 2.2007639481 2.2018243751 
2.202541244 2.2030262926 2.203375419 2.2036642143 2.2039783532 2.2732455267 2.273129402 2.2729887183 2.2728069983 
2.272613531 2.27242402 2.2722544846 2.2721186069 2.2720181343 2.271921881 2.2717337644 2.271267821 2.2702834074 
2.2686624741 2.2670453461 2.2661093631 2.2681807477 2.2764473735 1 1 1 1 
2.1275156934 2.1292136604 2.1277258368 2.1293266605 2.1392487335 2.154055927 2.1472125703 2.1134008573 2.1051631615 
2.1328618124 2.1614453094 2.1653112233 2.1569437144 2.1577142874 2.1633176989 2.1681413527 2.1794530491 2.1866486043 
2.1786411765 2.1651086509 2.1635148209 2.1738927298 2.1862689766 2.1966118392 2.1995626829 2.1937854838 2.1862931829 
2.1883532679 2.1981290738 2.2070303307 2.2100524303 2.206247949 2.1989774569 2.1951451472 2.1987642974 2.2056783464 
2.2091121052 2.2086226674 2.2057309002 2.2016714527 2.1980819778 2.1980524642 2.2009677384 2.2023350242 2.200139381 
2.1963581299 2.1935587385 2.1926651483 2.1923789292 2.1906347615 2.1884079568 2.1881193338 2.1891752162 2.1894222845 
2.1881955339 2.1869315849 2.1870411241 2.1878846486 2.1882637858 2.1879487397 2.1875273974 2.1874206019 2.1879238656 
2.1891884319 2.1909224534 2.1924179377 2.1934289919 2.1944597821 2.1956752577 2.1968614802 2.1979661983 2.1993798501 
2.2007552152 2.2018264267 2.2025525476 2.2030398892 2.2033839846 2.2036633798 2.203971776 2.2732456039 2.2731294603 
2.2729887149 2.2728068151 2.2726129634 2.2724228632 2.2722528136 2.2721173848 2.2720201667 2.2719326927 2.2717609385 
2.2713157387 2.2703396651 2.2686765192 2.2669160083 2.2656630786 2.2671063328 2.2740617335 1 1 
1 1 2.1278459438 2.1299240748 2.1285142787 2.130456304 2.1411865839 2.15707986 2.1509380707 
2.1158315045 2.105054606 2.1316086429 2.1614609501 2.1668417658 2.158545023 2.1582224706 2.1630236574 2.1670477884 
2.1780114712 2.1860305828 2.179019472 2.1655374817 2.1632028759 2.1729463641 2.1850956368 2.1956343444 2.199139193 
2.1937553186 2.1860764726 2.1876699269 2.1972792124 2.2064639862 2.2100645903 2.2067388909 2.1995212654 2.1953561275 
2.1986104026 2.2054738225 2.2092902039 2.2088983484 2.2061534519 2.2021074925 2.1983677395 2.1980820573 2.2008820712 
2.2023518879 2.2002748997 2.1964799817 2.1935660071 2.1925881531 2.1923290129 2.1906630998 2.1884053213 2.1880159043 
2.1890582466 2.1893936427 2.188246371 2.1869705844 2.1870360182 2.1878906423 2.1883233082 2.1880514237 2.1876385601 
2.18750994 2.18797025 2.1891920792 2.1909157871 2.1924357923 2.1934665246 2.194493407 2.1957016765 2.1968806413 
2.1979703337 2.199369646 2.2007452637 2.2018267955 2.2025624561 2.203052653 2.2033921532 2.2036621531 2.2039640377 
2.2732456833 2.2731295244 2.2729715069 2.2728066492 2.2726124124 2.2724216976 2.272251056 2.2721159174 2.2720217237 
2.2719428609 2.2717877547 2.27136478 2.2704005823 2.2687009728 2.2668030142 2.2652400607 2.2660649325 2.27171927 
1 1 1 1 2.1281233359 2.1306272719 2.1292668383 2.1314803864 2.1429259467 
2.1599490288 2.1547685216 2.1185086268 2.1051195152 2.1304032533 2.161437256 2.1683326062 2.1602364761 2.1588441087 
2.1628118554 2.1660290809 2.176573751 2.1853825003 2.1793989113 2.1660332223 2.1629811937 2.1720592501 2.1839363975 
2.1946270472 2.1986734637 2.1937028816 2.1858617043 2.1869880738 2.1964101984 2.2058484301 2.2100142302 2.2071866175 
2.2000489787 2.1955639465 2.1984472582 2.2052436418 2.2092707119 2.2091399413 2.2065560028 2.2025365906 2.1986566255 
2.1981154155 2.2007896307 2.20235488 2.2004022147 2.196604022 2.1935809104 2.192516466 2.1922804904 2.190694823 
2.1884119984 2.1879203047 2.1889411118 2.1893597458 2.1882939143 2.1870097628 2.18702975 2.1878914326 2.1883762155 
2.1881496784 2.1877487976 2.1876011388 2.1880194882 2.1891973501 2.1909082832 2.1924514698 2.1935027049 2.1945267774 
2.1957282733 2.196900394 2.1979752276 2.1993594056 2.2007341337 2.201825481 2.2025709311 2.2030645339 2.2033998929 