# vtk DataFile Version 4.2
vtk output
ASCII
DATASET RECTILINEAR_GRID
DIMENSIONS 101 101 1
X_COORDINATES 101 double
0 0.01 0.02 0.03 0.04 0.05 0.06 0.07 0.08 
0.09 0.1 0.11 0.12 0.13 0.14 0.15 0.16 0.17 
0.18 0.19 0.2 0.21 0.22 0.23 0.24 0.25 0.26 
0.27 0.28 0.29 0.3 0.31 0.32 0.33 0.34 0.35 
0.36 0.37 0.38 0.39 0.4 0.41 0.42 0.43 0.44 
0.45 0.46 0.47 0.48 0.49 0.5 0.51 0.52 0.53 
0.54 0.55 0.56 0.57 0.58 0.59 0.6 0.61 0.62 
0.63 0.64 0.65 0.66 0.67 0.68 0.69 0.7 0.71 
0.72 0.73 0.74 0.75 0.76 0.77 0.78 0.79 0.8 
0.81 0.82 0.83 0.84 0.85 0.86 0.87 0.88 0.89 
0.9 0.91 0.92 0.93 0.94 0.95 0.96 0.97 0.98 
0.99 1 
Y_COORDINATES 101 double
0 0.01 0.02 0.03 0.04 0.05 0.06 0.07 0.08 
0.09 0.1 0.11 0.12 0.13 0.14 0.15 0.16 0.17 
0.18 0.19 0.2 0.21 0.22 0.23 0.24 0.25 0.26 
0.27 0.28 0.29 0.3 0.31 0.32 0.33 0.34 0.35 
0.36 0.37 0.38 0.39 0.4 0.41 0.42 0.43 0.44 
0.45 0.46 0.47 0.48 0.49 0.5 0.51 0.52 0.53 
0.54 0.55 0.56 0.57 0.58 0.59 0.6 0.61 0.62 
0.63 0.64 0.65 0.66 0.67 0.68 0.69 0.7 0.71 
0.72 0.73 0.74 0.75 0.76 0.77 0.78 0.79 0.8 
0.81 0.82 0.83 0.84 0.85 0.86 0.87 0.88 0.89 
0.9 0.91 0.92 0.93 0.94 0.95 0.96 0.97 0.98 
0.99 1 
Z_COORDINATES 1 double
0 
POINT_DATA 10201
VECTORS Velocity double
1.092e-07 -1.657e-07 0 1.2381e-06 -4.955e-07 0 2.593e-06 -5.171e-07 0 
3.9303e-06 -3.474e-07 0 4.3659e-06 -6.68e-08 0 4.1199e-06 2.655e-07 0 
2.6321e-06 6.205e-07 0 3.107e-07 9.793e-07 0 -3.2865e-06 1.3303e-06 0 
-7.6801e-06 1.6655e-06 0 -1.32609e-05 1.9807e-06 0 -1.95242e-05 2.2726e-06 0 
-2.68391e-05 2.5405e-06 0 -3.46968e-05 2.7831e-06 0 -4.34571e-05 3.0016e-06 0 
-5.26176e-05 3.1954e-06 0 -6.25347e-05 3.3666e-06 0 -7.27178e-05 3.5148e-06 0 
-8.35211e-05 3.6426e-06 0 -9.44687e-05 3.7496e-06 0 -0.0001059125 3.8384e-06 0 
-0.0001173922 3.9086e-06 0 -0.0001292562 3.9626e-06 0 -0.0001410597 3.9997e-06 0 
-0.0001531457 4.0223e-06 0 -0.0001650851 4.0293e-06 0 -0.0001772131 4.0231e-06 0 
-0.0001891157 4.0023e-06 0 -0.0002011185 3.969e-06 0 -0.0002128219 3.9217e-06 0 
-0.0002245404 3.8623e-06 0 -0.0002358881 3.7891e-06 0 -0.000247167 3.704e-06 0 
-0.0002580047 3.6051e-06 0 -0.0002686897 3.4942e-06 0 -0.0002788632 3.3693e-06 0 
-0.0002887994 3.2324e-06 0 -0.0002981531 3.0814e-06 0 -0.0003071846 2.9184e-06 0 
-0.0003155622 2.7413e-06 0 -0.0003235329 2.5522e-06 0 -0.0003307792 2.3493e-06 0 
-0.0003375356 2.1347e-06 0 -0.0003434992 1.907e-06 0 -0.0003488933 1.6683e-06 0 
-0.0003534309 1.4174e-06 0 -0.0003573253 1.1567e-06 0 -0.0003603061 8.853e-07 0 
-0.000362579 6.057e-07 0 -0.000363891 3.172e-07 0 -0.0003644419 2.28e-08 0 
-0.0003639971 -2.781e-07 0 -0.0003627527 -5.824e-07 0 -0.0003604935 -8.901e-07 0 
-0.0003574138 -1.1982e-06 0 -0.0003533183 -1.5064e-06 0 -0.0003484016 -1.8115e-06 0 
-0.0003424888 -2.1129e-06 0 -0.0003357762 -2.4074e-06 0 -0.0003281095 -2.6943e-06 0 
-0.0003196882 -2.9703e-06 0 -0.0003103782 -3.2347e-06 0 -0.0003003831 -3.4842e-06 0 
-0.0002895884 -3.7179e-06 0 -0.000278202 -3.933e-06 0 -0.0002661278 -4.1285e-06 0 
-0.0002535781 -4.3018e-06 0 -0.0002404733 -4.4521e-06 0 -0.0002270294 -4.5771e-06 0 
-0.0002131813 -4.6763e-06 0 -0.0001991474 -4.7477e-06 0 -0.0001848744 -4.7913e-06 0 
-0.0001705813 -4.8055e-06 0 -0.0001562237 -4.7906e-06 0 -0.0001420193 -4.7456e-06 0 
-0.0001279292 -4.6711e-06 0 -0.0001141672 -4.5669e-06 0 -0.0001006966 -4.4339e-06 0 
-8.77248e-05 -4.2724e-06 0 -7.52135e-05 -4.084e-06 0 -6.33614e-05 -3.8695e-06 0 
-5.21247e-05 -3.6307e-06 0 -4.16908e-05 -3.3693e-06 0 -3.20073e-05 -3.0875e-06 0 
-2.32469e-05 -2.7875e-06 0 -1.53454e-05 -2.472e-06 0 -8.4582e-06 -2.1438e-06 0 
-2.5048e-06 -1.8063e-06 0 2.38e-06 -1.4631e-06 0 6.2975e-06 -1.1183e-06 0 
9.1392e-06 -7.768e-07 0 1.1034e-05 -4.441e-07 0 1.1908e-05 -1.268e-07 0 
1.19301e-05 1.664e-07 0 1.10775e-05 4.252e-07 0 9.5822e-06 6.358e-07 0 
7.5047e-06 7.799e-07 0 5.1865e-06 8.32e-07 0 2.8441e-06 7.477e-07 0 
1.0287e-06 4.926e-07 0 9.24e-08 1.06e-07 0 4.398e-07 -1.1823e-06 0 
2.7707e-06 -2.7112e-06 0 5.3817e-06 -2.6868e-06 0 7.3576e-06 -1.5666e-06 0 
7.296e-06 2.31e-07 0 5.0494e-06 2.3937e-06 0 -1.608e-07 4.7261e-06 0 
-8.0257e-06 7.1019e-06 0 -1.9007e-05 9.4388e-06 0 -3.25892e-05 1.16834e-05 0 
-4.90914e-05 1.38016e-05 0 -6.79109e-05 1.5773e-05 0 -8.93048e-05 1.7586e-05 0 
-0.0001126417 1.92359e-05 0 -0.0001381564 2.07221e-05 0 -0.0001652188 2.20474e-05 0 
-0.0001940602 2.32162e-05 0 -0.000224067 2.4235e-05 0 -0.0002554753 2.51099e-05 0 
-0.0002876949 2.58485e-05 0 -0.0003209692 2.64572e-05 0 -0.0003547332 2.69432e-05 0 
-0.0003892363 2.73122e-05 0 -0.0004239386 2.75704e-05 0 -0.0004590925 2.77222e-05 0 
-0.000494181 2.77726e-05 0 -0.0005294555 2.77243e-05 0 -0.0005644199 2.75812e-05 0 
-0.0005993205 2.73447e-05 0 -0.0006336796 2.70172e-05 0 -0.0006677349 2.65992e-05 0 
-0.0007010245 2.6092e-05 0 -0.0007337752 2.54952e-05 0 -0.0007655394 2.48097e-05 0 
-0.0007965308 2.40344e-05 0 -0.0008263154 2.31699e-05 0 -0.0008550929 2.22152e-05 0 
-0.000882443 2.1171e-05 0 -0.0009085516 2.00366e-05 0 -0.0009330129 1.8813e-05 0 
-0.0009560005 1.75003e-05 0 -0.0009771245 1.61005e-05 0 -0.0009965483 1.46145e-05 0 
-0.0010139005 1.30455e-05 0 -0.0010293375 1.13958e-05 0 -0.001042509 9.6698e-06 0 
-0.0010535682 7.8714e-06 0 -0.0010621894 6.0066e-06 0 -0.0010685272 4.081e-06 0 
-0.0010722836 2.1022e-06 0 -0.0010736191 7.74e-08 0 -0.0010722674 -1.984e-06 0 
-0.0010683997 -4.0732e-06 0 -0.0010617846 -6.1793e-06 0 -0.0010526083 -8.2918e-06 0 
-0.0010406776 -1.03986e-05 0 -0.0010261978 -1.24878e-05 0 -0.001009016 -1.45462e-05 0 
-0.00098936 -1.65612e-05 0 -0.0009671187 -1.85188e-05 0 -0.0009425447 -2.04059e-05 0 
-0.0009155691 -2.22083e-05 0 -0.0008864707 -2.39129e-05 0 -0.0008552217 -2.55059e-05 0 
-0.0008221267 -2.69748e-05 0 -0.000787197 -2.83068e-05 0 -0.0007507613 -2.94904e-05 0 
-0.0007128663 -3.05144e-05 0 -0.0006738617 -3.13692e-05 0 -0.0006338244 -3.20456e-05 0 
-0.0005931205 -3.25363e-05 0 -0.000551851 -3.28348e-05 0 -0.0005103924 -3.29364e-05 0 
-0.0004688619 -3.28377e-05 0 -0.0004276401 -3.25372e-05 0 -0.000386852 -3.20347e-05 0 
-0.0003468742 -3.13323e-05 0 -0.0003078306 -3.04331e-05 0 -0.0002700858 -2.93427e-05 0 
-0.0002337534 -2.80679e-05 0 -0.0001991772 -2.66178e-05 0 -0.0001664513 -2.50028e-05 0 
-0.0001358903 -2.32354e-05 0 -0.0001075592 -2.13298e-05 0 -8.17347e-05 -1.93021e-05 0 
-5.84429e-05 -1.71703e-05 0 -3.79131e-05 -1.49546e-05 0 -2.01218e-05 -1.26774e-05 0 
-5.2399e-06 -1.0364e-05 0 6.8193e-06 -8.0431e-06 0 1.59588e-05 -5.7475e-06 0 
2.23479e-05 -3.5158e-06 0 2.59879e-05 -1.3938e-06 0 2.71623e-05 5.626e-07 0 
2.60123e-05 2.283e-06 0 2.29921e-05 3.6779e-06 0 1.84577e-05 4.6302e-06 0 
1.31336e-05 4.9866e-06 0 7.6979e-06 4.546e-06 0 3.1905e-06 3.1777e-06 0 
4.787e-07 1.0149e-06 0 4.637e-07 -2.6555e-06 0 2.759e-06 -5.4405e-06 0 
4.8007e-06 -4.8367e-06 0 5.3476e-06 -1.8276e-06 0 2.7796e-06 2.7258e-06 0 
-3.22e-06 8.1794e-06 0 -1.35624e-05 1.40831e-05 0 -2.80191e-05 2.01288e-05 0 
-4.70866e-05 2.61073e-05 0 -7.02406e-05 3.18784e-05 0 -9.77626e-05 3.73494e-05 0 
-0.000128986 4.24619e-05 0 -0.0001640902 4.71811e-05 0 -0.0002023519 5.14898e-05 0 
-0.0002439094 5.53827e-05 0 -0.0002880293 5.88633e-05 0 -0.0003348408 6.19407e-05 0 
-0.0003836252 6.46282e-05 0 -0.0004345179 6.69409e-05 0 -0.0004868272 6.88954e-05 0 
-0.0005407004 7.05084e-05 0 -0.0005954769 7.17962e-05 0 -0.0006513161 7.27739e-05 0 
-0.0007075886 7.34558e-05 0 -0.0007644625 7.38542e-05 0 -0.0008213372 7.398e-05 0 
-0.0008783847 7.38424e-05 0 -0.0009350296 7.3449e-05 0 -0.0009914426 7.28056e-05 0 
-0.00104707 7.19168e-05 0 -0.0011020765 7.07857e-05 0 -0.0011559266 6.94143e-05 0 
-0.0012087751 6.78037e-05 0 -0.0012601027 6.59545e-05 0 -0.0013100518 6.38666e-05 0 
-0.001358118 6.15399e-05 0 -0.0014044303 5.89741e-05 0 -0.0014484991 5.61696e-05 0 
-0.001490441 5.3127e-05 0 -0.0015297823 4.98478e-05 0 -0.0015666292 4.63345e-05 0 
-0.001600527 4.25909e-05 0 -0.0016315746 3.8622e-05 0 -0.0016593398 3.44347e-05 0 
-0.0016839196 3.00374e-05 0 -0.0017049089 2.54405e-05 0 -0.0017224081 2.06562e-05 0 
-0.0017360446 1.56991e-05 0 -0.0017459288 1.05858e-05 0 -0.0017517263 5.3349e-06 0 
-0.0017535647 -3.26e-08 0 -0.0017511531 -5.4936e-06 0 -0.001744643 -1.10231e-05 0 
-0.001733793 -1.65939e-05 0 -0.0017187848 -2.21771e-05 0 -0.0016994314 -2.77421e-05 0 
-0.0016759504 -3.32568e-05 0 -0.0016482128 -3.86878e-05 0 -0.001616477 -4.40008e-05 0 
-0.0015806743 -4.91606e-05 0 -0.001541107 -5.41318e-05 0 -0.0014977675 -5.88789e-05 0 
-0.001451003 -6.33666e-05 0 -0.0014008661 -6.75602e-05 0 -0.001347748 -7.14262e-05 0 
-0.0012917581 -7.49323e-05 0 -0.0012333287 -7.80482e-05 0 -0.0011726203 -8.07455e-05 0 
-0.0011101011 -8.29986e-05 0 -0.0010459751 -8.47846e-05 0 -0.0009807388 -8.60839e-05 0 
-0.0009146301 -8.68803e-05 0 -0.0008481644 -8.71615e-05 0 -0.0007816022 -8.69191e-05 0 
-0.0007154667 -8.6149e-05 0 -0.0006500279 -8.48515e-05 0 -0.0005858048 -8.30312e-05 0 
-0.0005230634 -8.06975e-05 0 -0.0004623049 -7.78645e-05 0 -0.000403777 -7.45506e-05 0 
-0.0003479498 -7.07794e-05 0 -0.0002950379 -6.65789e-05 0 -0.0002454663 -6.1982e-05 0 
-0.0001994015 -5.70262e-05 0 -0.0001572093 -5.17542e-05 0 -0.0001189928 -4.62138e-05 0 
-8.50428e-05 -4.04586e-05 0 -5.53818e-05 -3.45482e-05 0 -3.02078e-05 -2.85499e-05 0 
-9.4416e-06 -2.25394e-05 0 6.8354e-06 -1.66033e-05 0 1.88328e-05 -1.08424e-05 0 
2.66209e-05 -5.375e-06 0 3.05832e-05 -3.435e-07 0 3.09953e-05 4.0779e-06 0 
2.84819e-05 7.6735e-06 0 2.36038e-05 1.01734e-05 0 1.73134e-05 1.12488e-05 0 
1.05293e-05 1.0524e-05 0 4.5675e-06 7.7166e-06 0 7.344e-07 2.8572e-06 0 
2.962e-07 -3.8927e-06 0 1.6471e-06 -7.3169e-06 0 1.7952e-06 -5.2688e-06 0 
-5.666e-07 6.386e-07 0 -7.1184e-06 9.0755e-06 0 -1.82318e-05 1.90511e-05 0 
-3.48736e-05 2.98346e-05 0 -5.68528e-05 4.09031e-05 0 -8.46871e-05 5.18872e-05 0 
-0.0001178459 6.25303e-05 0 -0.0001565881 7.26577e-05 0 -0.0002002017 8.21546e-05 0 
-0.0002488111 9.09496e-05 0 -0.0003016221 9.90035e-05 0 -0.0003586988 0.0001063001 0 
-0.0004192237 0.0001128398 0 -0.0004832429 0.0001186347 0 -0.0005499482 0.0001237047 0 
-0.0006193897 0.0001280747 0 -0.0006907862 0.000131772 0 -0.0007642007 0.0001348254 0 
-0.0008388861 0.0001372628 0 -0.0009149204 0.0001391111 0 -0.0009915915 0.000140395 0 
-0.0010689897 0.0001411371 0 -0.0011464355 0.0001413567 0 -0.0012240265 0.0001410707 0 
-0.0013011122 0.0001402927 0 -0.0013777913 0.0001390339 0 -0.0014534378 0.0001373028 0 
-0.0015281466 0.0001351056 0 -0.0016013122 0.0001324465 0 -0.0016730212 0.0001293283 0 
-0.0017426858 0.0001257523 0 -0.0018103816 0.0001217194 0 -0.0018755374 0.00011723 0 
-0.0019382165 0.0001122848 0 -0.0019978647 0.0001068851 0 -0.0020545342 0.0001010332 0 
-0.0021076895 9.47329e-05 0 -0.0021573749 8.799e-05 0 -0.0022030769 8.08124e-05 0 
-0.0022448365 7.32108e-05 0 -0.0022821676 6.51989e-05 0 -0.0023151138 5.67935e-05 0 
-0.0023432226 4.80149e-05 0 -0.0023665477 3.88875e-05 0 -0.002384677 2.94389e-05 0 
-0.002397683 1.97011e-05 0 -0.0024052012 9.71e-06 0 -0.0024073314 -4.946e-07 0 
-0.0024037645 -1.08689e-05 0 -0.0023946363 -2.13652e-05 0 -0.0023797001 -3.19325e-05 0 
-0.0023591359 -4.25162e-05 0 -0.0023327655 -5.30588e-05 0 -0.0023008203 -6.34999e-05 0 
-0.0022631956 -7.37771e-05 0 -0.0022201794 -8.3826e-05 0 -0.0021717439 -9.35812e-05 0 
-0.0021182374 -0.0001029763 0 -0.0020597097 -0.0001119452 0 -0.0019965704 -0.0001204221 0 
-0.0019289456 -0.0001283426 0 -0.0018573048 -0.0001356442 0 -0.0017818459 -0.0001422672 0 
-0.001703094 -0.000148155 0 -0.0016213118 -0.0001532553 0 -0.0015370727 -0.0001575204 0 
-0.0014506942 -0.000160908 0 -0.0013627881 -0.0001633818 0 -0.0012737143 -0.000164912 0 
-0.0011841105 -0.0001654759 0 -0.0010943642 -0.0001650582 0 -0.0010051242 -0.0001636514 0 
-0.000916789 -0.0001612565 0 -0.0008300026 -0.0001578824 0 -0.0007451563 -0.0001535471 0 
-0.0006628718 -0.000148277 0 -0.0005835146 -0.0001421075 0 -0.0005076655 -0.0001350828 0 
-0.000435645 -0.0001272561 0 -0.0003679745 -0.0001186894 0 -0.0003049097 -0.0001094542 0 
-0.000246893 -9.96312e-05 0 -0.0001940945 -8.93112e-05 0 -0.0001468573 -7.85957e-05 0 
-0.0001052432 -6.75979e-05 0 -6.94719e-05 -5.64447e-05 0 -3.94703e-05 -4.5279e-05 0 
-1.53051e-05 -3.42629e-05 0 3.2666e-06 -2.35829e-05 0 1.63712e-05 -1.3456e-05 0 
2.44691e-05 -4.138e-06 0 2.79349e-05 4.0656e-06 0 2.75097e-05 1.07876e-05 0 
2.38849e-05 1.55875e-05 0 1.81495e-05 1.79508e-05 0 1.13692e-05 1.73151e-05 0 
5.0513e-06 1.31626e-05 0 8.244e-07 5.1813e-06 0 1.44e-08 -4.4556e-06 0 
-1.669e-07 -7.3687e-06 0 -2.825e-06 -2.7772e-06 0 -9.1517e-06 7.1141e-06 0 
-2.07805e-05 2.05315e-05 0 -3.80561e-05 3.61438e-05 0 -6.1939e-05 5.29427e-05 0 
-9.22315e-05 7.0183e-05 0 -0.0001294492 8.73217e-05 0 -0.0001730447 0.0001039699 0 
-0.0002232559 0.0001198553 0 -0.0002793321 0.0001347931 0 -0.0003413551 0.0001486642 0 
-0.0004084733 0.0001613986 0 -0.0004806924 0.0001729625 0 -0.0005571248 0.0001833488 0 
-0.0006377486 0.0001925695 0 -0.0007216793 0.0002006495 0 -0.0008088945 0.0002076226 0 
-0.0008985343 0.0002135274 0 -0.0009905885 0.000218405 0 -0.0010842315 0.0002222964 0 
-0.0011794689 0.0002252413 0 -0.0012755122 0.0002272767 0 -0.0013723811 0.0002284362 0 
-0.0014693222 0.0002287497 0 -0.0015663643 0.0002282426 0 -0.0016627856 0.0002269364 0 
-0.001758618 0.0002248484 0 -0.0018531667 0.0002219923 0 -0.0019464609 0.0002183781 0 
-0.0020378286 0.0002140133 0 -0.0021272923 0.0002089028 0 -0.0022141997 0.00020305 0 
-0.0022985633 0.0001964572 0 -0.0023797496 0.0001891264 0 -0.0024577606 0.0001810599 0 
-0.0025319819 0.0001722612 0 -0.0026024066 0.0001627354 0 -0.0026684421 0.0001524902 0 
-0.002730076 0.0001415361 0 -0.0027867421 0.0001298875 0 -0.0028384284 0.0001175629 0 
-0.002884601 0.0001045855 0 -0.0029252559 9.09836e-05 0 -0.0029598988 7.67911e-05 0 
-0.0029885428 6.20474e-05 0 -0.0030107415 4.67984e-05 0 -0.0030265348 3.10959e-05 0 
-0.0030355333 1.49978e-05 0 -0.0030378138 -1.4314e-06 0 -0.0030330529 -1.81215e-05 0 
-0.0030213745 -3.49962e-05 0 -0.0030025296 -5.19737e-05 0 -0.0029766985 -6.8967e-05 0 
-0.0029437139 -8.58844e-05 0 -0.0029038207 -0.0001026302 0 -0.0028569393 -0.0001191051 0 
-0.0028033851 -0.0001352074 0 -0.0027431695 -0.0001508331 0 -0.0026766828 -0.0001658777 0 
-0.0026040284 -0.0001802364 0 -0.0025256722 -0.0001938058 0 -0.0024418078 -0.0002064841 0 
-0.0023529745 -0.0002181729 0 -0.0022594509 -0.0002287783 0 -0.0021618444 -0.0002382112 0 
-0.0020605099 -0.0002463895 0 -0.0019561139 -0.0002532382 0 -0.0018490757 -0.0002586909 0 
-0.0017401092 -0.0002626906 0 -0.0016296832 -0.0002651908 0 -0.0015185432 -0.0002661558 0 
-0.00140719 -0.000265562 0 -0.0012963834 -0.0002633981 0 -0.0011866362 -0.0002596657 0 
-0.0010787025 -0.0002543798 0 -0.0009730856 -0.0002475689 0 -0.0008705128 -0.0002392756 0 
-0.0007714549 -0.0002295564 0 -0.0006765901 -0.000218482 0 -0.0005863335 -0.0002061374 0 
-0.0005012911 -0.0001926222 0 -0.0004217978 -0.0001780504 0 -0.000348364 -0.0001625515 0 
-0.0002812195 -0.0001462707 0 -0.0002207534 -0.0001293704 0 -0.0001670633 -0.0001120314 0 
-0.0001203891 -9.44558e-05 0 -8.06655e-05 -7.68698e-05 0 -4.79499e-05 -5.95289e-05 0 
-2.19763e-05 -4.27234e-05 0 -2.5783e-06 -2.6787e-05 0 1.07569e-05 -1.21062e-05 0 
1.84701e-05 8.671e-07 0 2.13757e-05 1.16038e-05 0 2.02444e-05 1.94867e-05 0 
1.62478e-05 2.38099e-05 0 1.05507e-05 2.3799e-05 0 4.7941e-06 1.86405e-05 0 
7.867e-07 7.5654e-06 0 -3.262e-07 -4.0984e-06 0 -2.3928e-06 -4.9513e-06 0 
-8.4708e-06 3.4852e-06 0 -1.95155e-05 1.85341e-05 0 -3.70285e-05 3.80358e-05 0 
-6.12646e-05 6.03446e-05 0 -9.31306e-05 8.4192e-05 0 -0.000132385 0.0001086184 0 
-0.0001795159 0.0001329069 0 -0.0002339432 0.0001565319 0 -0.0002958775 0.0001791159 0 
-0.000364529 0.0002003964 0 -0.0004399422 0.0002201985 0 -0.0005212147 0.0002384149 0 
-0.0006083041 0.0002549886 0 -0.0007002626 0.0002699006 0 -0.0007970119 0.0002831592 0 
-0.000897601 0.0002947926 0 -0.0010019463 0.0003048415 0 -0.0011091182 0.0003133553 0 
-0.0012190425 0.0003203871 0 -0.0013308235 0.0003259911 0 -0.0014444022 0.0003302203 0 
-0.0015589204 0.0003331248 0 -0.0016743334 0.0003347502 0 -0.0017898198 0.0003351373 0 
-0.0019053448 0.0003343215 0 -0.0020201204 0.0003323328 0 -0.0021341158 0.0003291955 0 
-0.0022465719 0.0003249292 0 -0.0023574566 0.000319549 0 -0.0024660354 0.000313066 0 
-0.0025722703 0.0003054885 0 -0.0026754489 0.0002968225 0 -0.0027755247 0.0002870726 0 
-0.002871806 0.0002762435 0 -0.0029642377 0.0002643403 0 -0.0030521499 0.0002513698 0 
-0.0031354806 0.0002373414 0 -0.0032135853 0.0002222682 0 -0.0032863996 0.0002061675 0 
-0.0033533093 0.0001890622 0 -0.0034142545 0.0001709809 0 -0.0034686585 0.000151959 0 
-0.0035164744 0.0001320395 0 -0.0035571716 0.0001112728 0 -0.0035907264 8.97179e-05 0 
-0.0036166636 6.74422e-05 0 -0.0036349941 4.45218e-05 0 -0.0036453082 2.10418e-05 0 
-0.0036476627 -2.9041e-06 0 -0.0036417237 -2.72137e-05 0 -0.0036276051 -5.17764e-05 0 
-0.0036050583 -7.64738e-05 0 -0.0035742647 -0.0001011803 0 -0.0035350691 -0.0001257639 0 
-0.0034877294 -0.0001500867 0 -0.0034321901 -0.0001740061 0 -0.0033687923 -0.0001973761 0 
-0.0032975843 -0.0002200478 0 -0.0032189944 -0.0002418715 0 -0.0031331754 -0.0002626974 0 
-0.0030406439 -0.0002823774 0 -0.0029416549 -0.0003007664 0 -0.0028368103 -0.000317724 0 
-0.0027264613 -0.0003331159 0 -0.0026112889 -0.0003468155 0 -0.0024917306 -0.0003587055 0 
-0.0023685361 -0.0003686792 0 -0.0022422159 -0.0003766421 0 -0.0021135742 -0.0003825131 0 
-0.0019831773 -0.0003862261 0 -0.0018518667 -0.0003877306 0 -0.0017202444 -0.0003869931 0 
-0.0015891689 -0.0003839978 0 -0.001459255 -0.0003787476 0 -0.0013313552 -0.0003712643 0 
-0.0012060727 -0.0003615894 0 -0.0010842292 -0.0003497844 0 -0.0009663899 -0.0003359311 0 
-0.0008533203 -0.0003201315 0 -0.0007455202 -0.0003025087 0 -0.000643672 -0.0002832063 0 
-0.0005481824 -0.0002623894 0 -0.000459623 -0.0002402451 0 -0.0003782785 -0.0002169832 0 
-0.000304581 -0.0001928379 0 -0.0002386627 -0.0001680697 0 -0.0001807847 -0.0001429684 0 
-0.0001308937 -0.0001178571 0 -8.90448e-05 -9.30976e-05 0 -5.49612e-05 -6.90976e-05 0 
-2.84524e-05 -4.63194e-05 0 -8.9751e-06 -2.5291e-05 0 3.951e-06 -6.6178e-06 0 
1.11816e-05 9.0042e-06 0 1.35335e-05 2.07782e-05 0 1.22263e-05 2.78002e-05 0 
8.4834e-06 2.90635e-05 0 4.0115e-06 2.34402e-05 0 6.68e-07 9.713e-06 0 
-6.994e-07 -2.6853e-06 0 -4.8555e-06 3.356e-07 0 -1.47424e-05 1.40926e-05 0 
-3.10176e-05 3.5567e-05 0 -5.49925e-05 6.22865e-05 0 -8.67821e-05 9.2333e-05 0 
-0.0001272013 0.0001242049 0 -0.0001759321 0.0001567445 0 -0.0002334123 0.0001890708 0 
-0.0002990111 0.0002205243 0 -0.0003729029 0.0002506225 0 -0.0004542525 0.0002790219 0 
-0.0005430679 0.0003054886 0 -0.0006383983 0.0003298734 0 -0.0007401588 0.0003520923 0 
-0.0008473478 0.0003721109 0 -0.0009598386 0.0003899311 0 -0.0010766217 0.0004055815 0 
-0.0011975605 0.0004191088 0 -0.0013216635 0.0004305714 0 -0.0014488011 0.0004400339 0 
-0.0015780141 0.0004475633 0 -0.0017091863 0.0004532259 0 -0.0018413959 0.0004570847 0 
-0.0019745405 0.0004591977 0 -0.0021077357 0.0004596174 0 -0.002240889 0.0004583894 0 
-0.0023731504 0.0004555526 0 -0.0025044319 0.0004511392 0 -0.0026339139 0.0004451755 0 
-0.0027615076 0.000437682 0 -0.0028864201 0.0004286744 0 -0.0030085573 0.000418165 0 
-0.0031271503 0.0004061633 0 -0.0032420979 0.0003926775 0 -0.0033526544 0.0003777157 0 
-0.0034587115 0.0003612869 0 -0.0035595482 0.0003434028 0 -0.0036550517 0.0003240785 0 
-0.0037445297 0.0003033342 0 -0.0038278701 0.0002811961 0 -0.0039044154 0.0002576973 0 
-0.0039740616 0.0002328793 0 -0.004036194 0.0002067925 0 -0.0040907267 0.000179497 0 
-0.0041370969 0.0001510636 0 -0.004175248 0.0001215738 0 -0.0042046798 9.11207e-05 0 
-0.0042253774 5.98088e-05 0 -0.0042369141 2.77544e-05 0 -0.004239329 -4.9148e-06 0 
-0.0042322802 -3.80596e-05 0 -0.0042158731 -7.15302e-05 0 -0.0041898609 -0.0001051661 0 
-0.0041544264 -0.0001387979 0 -0.0041094264 -0.0001722472 0 -0.0040551311 -0.0002053286 0 
-0.0039915079 -0.0002378502 0 -0.003918921 -0.0002696156 0 -0.0038374527 -0.0003004253 0 
-0.0037475655 -0.0003300783 0 -0.0036494574 -0.0003583739 0 -0.00354369 -0.000385114 0 
-0.0034305741 -0.0004101042 0 -0.0033107672 -0.000433157 0 -0.0031846864 -0.0004540926 0 
-0.0030530777 -0.000472742 0 -0.0029164533 -0.0004889483 0 -0.0027756366 -0.0005025692 0 
-0.00263122 -0.0005134784 0 -0.0024840884 -0.0005215679 0 -0.0023348959 -0.0005267491 0 
-0.0021845693 -0.000528955 0 -0.0020338022 -0.0005281409 0 -0.0018835408 -0.0005242862 0 
-0.0017344926 -0.0005173948 0 -0.0015875979 -0.0005074966 0 -0.0014435507 -0.0004946476 0 
-0.0013032579 -0.000478931 0 -0.0011673706 -0.0004604569 0 -0.0010367331 -0.0004393633 0 
-0.0009119235 -0.0004158161 0 -0.0007936936 -0.0003900093 0 -0.0006825169 -0.000362166 0 
-0.0005790221 -0.0003325386 0 -0.0004835463 -0.00030141 0 -0.0003965631 -0.0002690954 0 
-0.0003182404 -0.0002359449 0 -0.0002488633 -0.0002023462 0 -0.0001883959 -0.0001687295 0 
-0.0001368996 -0.0001355732 0 -9.4098e-05 -0.0001034115 0 -5.97916e-05 -7.28436e-05 0 
-3.34248e-05 -4.45445e-05 0 -1.44991e-05 -1.92775e-05 0 -2.1412e-06 2.0926e-06 0 
4.4866e-06 1.85878e-05 0 6.6231e-06 2.91025e-05 0 5.5118e-06 3.23942e-05 0 
2.8639e-06 2.70352e-05 0 4.949e-07 1.14257e-05 0 -1.0892e-06 -1.424e-07 0 
-7.446e-06 8.7265e-06 0 -2.13743e-05 2.94147e-05 0 -4.32118e-05 5.8671e-05 0 
-7.40446e-05 9.37845e-05 0 -0.0001138121 0.0001326144 0 -0.0001632064 0.0001734588 0 
-0.0002218064 0.0002149855 0 -0.0002899787 0.0002561642 0 -0.0003670252 0.0002962112 0 
-0.0004530724 0.0003345436 0 -0.0005472328 0.0003707392 0 -0.0006494746 0.0004045044 0 
-0.0007587977 0.000435647 0 -0.0008750776 0.000464054 0 -0.0009972619 0.0004896734 0 
-0.0011251814 0.0005124988 0 -0.001257773 0.0005325575 0 -0.0013948544 0.0005499002 0 
-0.0015353782 0.0005645933 0 -0.0016791661 0.0005767119 0 -0.0018252016 0.0005863352 0 
-0.001973318 0.0005935422 0 -0.0021225356 0.0005984086 0 -0.0022727 0.0006010052 0 
-0.0024228692 0.0006013955 0 -0.0025728981 0.0005996359 0 -0.0027218799 0.0005957747 0 
-0.0028696737 0.0005898523 0 -0.0030154043 0.0005819019 0 -0.0031589303 0.00057195 0 
-0.0032994044 0.000560018 0 -0.0034366808 0.0005461225 0 -0.0035699382 0.0005302775 0 
-0.0036990246 0.0005124955 0 -0.0038231443 0.0004927891 0 -0.0039421396 0.0004711728 0 
-0.0040552428 0.0004476642 0 -0.0041622937 0.0004222857 0 -0.0042625567 0.0003950664 0 
-0.0043558754 0.000366043 0 -0.004441553 0.0003352615 0 -0.0045194454 0.0003027782 0 
-0.0045889033 0.0002686611 0 -0.0046498052 0.0002329906 0 -0.0047015598 0.0001958603 0 
-0.0047440806 0.0001573781 0 -0.0047768452 0.000117666 0 -0.0047998153 7.68606e-05 0 
-0.0048125496 3.51137e-05 0 -0.0048150712 -7.409e-06 0 -0.0048070318 -5.05269e-05 0 
-0.004788529 -9.40461e-05 0 -0.004759318 -0.0001377599 0 -0.0047195829 -0.0001814496 0 
-0.0046691922 -0.0002248859 0 -0.0046084263 -0.0002678302 0 -0.004537274 -0.0003100365 0 
-0.0044561196 -0.0003512528 0 -0.0043650765 -0.0003912235 0 -0.0042646374 -0.0004296914 0 
-0.0041550409 -0.0004663997 0 -0.0040368885 -0.0005010948 0 -0.0039105412 -0.0005335288 0 
-0.003776706 -0.0005634616 0 -0.0036358586 -0.000590664 0 -0.0034888034 -0.00061492 0 
-0.0033361196 -0.0006360292 0 -0.003178696 -0.00065381 0 -0.0030171995 -0.0006681012 0 
-0.0028525865 -0.0006787647 0 -0.0026855909 -0.0006856876 0 -0.0025172161 -0.0006887841 0 
-0.0023482385 -0.0006879973 0 -0.0021796841 -0.0006833008 0 -0.0020123445 -0.0006746999 0 
-0.00184724 -0.0006622329 0 -0.0016851481 -0.0006459717 0 -0.0015270532 -0.0006260231 0 
-0.0013736861 -0.0006025288 0 -0.0012259641 -0.0005756659 0 -0.0010845382 -0.0005456476 0 
-0.0009502252 -0.0005127236 0 -0.0008235627 -0.0004771805 0 -0.0007052336 -0.0004393424 0 
-0.0005956271 -0.0003995728 0 -0.0004952585 -0.0003582755 0 -0.0004043339 -0.0003158978 0 
-0.0003231663 -0.0002729336 0 -0.0002517437 -0.000229928 0 -0.0001901422 -0.0001874834 0 
-0.0001380963 -0.0001462669 0 -9.54108e-05 -0.0001070196 0 -6.15332e-05 -7.05675e-05 0 
-3.5964e-05 -3.78334e-05 0 -1.78308e-05 -9.8508e-06 0 -6.2961e-06 1.22211e-05 0 
-1.275e-07 2.70789e-05 0 1.9045e-06 3.32543e-05 0 1.4687e-06 2.90532e-05 0 
2.858e-07 1.25697e-05 0 -1.4859e-06 3.5657e-06 0 -1.00953e-05 2.03483e-05 0 
-2.81913e-05 4.96741e-05 0 -5.57901e-05 8.81429e-05 0 -9.37354e-05 0.0001328723 0 
-0.0001417674 0.0001815481 0 -0.0002004334 0.0002323049 0 -0.0002691873 0.0002836623 0 
-0.0003483067 0.00033446 0 -0.0004370106 0.000383804 0 -0.0005353672 0.0004310195 0 
-0.0006424276 0.0004756111 0 -0.0007581156 0.0005172287 0 -0.0008813792 0.0005556384 0 
-0.0010120545 0.0005906983 0 -0.0011490396 0.000622338 0 -0.001292126 0.0006505418 0 
-0.0014402011 0.0006753347 0 -0.0015930413 0.0006967705 0 -0.0017495486 0.0007149223 0 
-0.0019095015 0.0007298749 0 -0.0020718316 0.000741719 0 -0.0022363271 0.0007505456 0 
-0.0024019558 0.0007564431 0 -0.0025685169 0.0007594939 0 -0.0027350155 0.0007597735 0 
-0.0029012593 0.0007573484 0 -0.0030662887 0.0007522764 0 -0.0032299153 0.0007446064 0 
-0.003391212 0.0007343789 0 -0.0035499895 0.0007216271 0 -0.0037053503 0.0007063779 0 
-0.0038571009 0.0006886534 0 -0.0040043715 0.0006684728 0 -0.0041469633 0.0006458537 0 
-0.0042840344 0.0006208144 0 -0.0044153816 0.0005933756 0 -0.0045401938 0.0005635624 0 
-0.0046582676 0.0005314062 0 -0.0047688273 0.0004969463 0 -0.0048716759 0.000460232 0 
-0.0049660808 0.0004213241 0 -0.0050518605 0.0003802959 0 -0.0051283347 0.0003372355 0 
-0.0051953492 0.0002922461 0 -0.0052522866 0.0002454474 0 -0.0052990329 0.0001969761 0 
-0.0053350459 0.0001469867 0 -0.0053602656 9.56514e-05 0 -0.0053742375 4.31607e-05 0 
-0.0053769698 -1.02773e-05 0 -0.0053681082 -6.44372e-05 0 -0.0053477427 -0.0001190771 0 
-0.0053156305 -0.0001739391 0 -0.0052719558 -0.0002287513 0 -0.0052165975 -0.0002832288 0 
-0.0051498444 -0.0003370757 0 -0.0050717041 -0.0003899868 0 -0.0049825783 -0.0004416503 0 
-0.0048826077 -0.0004917496 0 -0.0047723112 -0.0005399666 0 -0.0046519635 -0.0005859839 0 
-0.0045222011 -0.0006294881 0 -0.0043834298 -0.0006701728 0 -0.0042363996 -0.0007077417 0 
-0.0040816397 -0.0007419114 0 -0.0039200053 -0.0007724153 0 -0.0037521364 -0.000799006 0 
-0.0035789804 -0.0008214588 0 -0.0034012709 -0.0008395747 0 -0.0032200294 -0.0008531828 0 
-0.0030360617 -0.0008621435 0 -0.0028504411 -0.0008663505 0 -0.0026640199 -0.0008657331 0 
-0.0024778966 -0.0008602584 0 -0.002292941 -0.0008499326 0 -0.0021102468 -0.0008348027 0 
-0.0019306691 -0.0008149576 0 -0.0017552648 -0.0007905291 0 -0.0015848398 -0.0007616924 0 
-0.0014203799 -0.0007286671 0 -0.0012626059 -0.0006917172 0 -0.0011123974 -0.0006511519 0 
-0.0009703539 -0.0006073262 0 -0.0008372124 -0.0005606417 0 -0.0007134146 -0.0005115477 0 
-0.0005995197 -0.000460543 0 -0.0004957751 -0.0004081786 0 -0.0004025268 -0.0003550605 0 
-0.0003197931 -0.000301855 0 -0.0002476727 -0.0002492936 0 -0.0001859216 -0.0001981809 0 
-0.0001343599 -0.0001494034 0 -9.24515e-05 -0.0001039395 0 -5.97098e-05 -6.2872e-05 0 
-3.52796e-05 -2.7402e-05 0 -1.83412e-05 1.1345e-06 0 -7.6903e-06 2.12441e-05 0 
-2.1387e-06 3.12523e-05 0 -9.04e-08 2.92379e-05 0 5.36e-08 1.3057e-05 0 
-1.883e-06 8.4508e-06 0 -1.27596e-05 3.52584e-05 0 -3.50779e-05 7.49896e-05 0 
-6.85407e-05 0.0001241583 0 -0.0001137452 0.0001797668 0 -0.0001702188 0.0002393735 0 
-0.0002383485 0.0003009855 0 -0.0003174468 0.0003630026 0 -0.0004076881 0.0004241563 0 
-0.0005081949 0.0004834579 0 -0.000618967 0.0005401532 0 -0.0007389854 0.0005936819 0 
-0.0008681245 0.0006436428 0 -0.0010052762 0.0006897639 0 -0.001150236 0.0007318761 0 
-0.0013018522 0.0007698922 0 -0.0014598792 0.0008037871 0 -0.0016231566 0.0008335833 0 
-0.0017914237 0.000859337 0 -0.0019635351 0.0008811278 0 -0.0021392312 0.0008990495 0 
-0.0023173956 0.0009132034 0 -0.0024977768 0.0009236922 0 -0.0026792944 0.0009306161 0 
-0.0028617063 0.0009340696 0 -0.0030439693 0.0009341389 0 -0.0032258483 0.0009309011 0 
-0.0034063361 0.0009244235 0 -0.0035852006 0.0009147633 0 -0.0037614675 0.0009019687 0 
-0.0039349035 0.0008860795 0 -0.0041045651 0.000867129 0 -0.0042702149 0.0008451451 0 
-0.0044309388 0.0008201528 0 -0.0045864945 0.0007921757 0 -0.004735998 0.0007612387 0 
-0.004879204 0.00072737 0 -0.0050152617 0.0006906033 0 -0.0051439274 0.0006509801 0 
-0.0052643889 0.000608552 0 -0.0053764117 0.0005633822 0 -0.00547923 0.0005155481 0 
-0.0055726283 0.0004651426 0 -0.0056558974 0.0004122758 0 -0.0057288526 0.0003570761 0 
-0.0057908529 0.0002996917 0 -0.0058417583 0.0002402912 0 -0.0058810085 0.0001790643 0 
-0.0059085226 0.000116222 0 -0.0059238341 5.19967e-05 0 -0.0059269362 -1.3358e-05 0 
-0.0059174689 -7.95681e-05 0 -0.0058955138 -0.0001463398 0 -0.0058608293 -0.0002133609 0 
-0.0058135984 -0.0002803021 0 -0.0057537081 -0.000346819 0 -0.0056814535 -0.0004125543 0 
-0.0055968583 -0.0004771396 0 -0.0055003378 -0.0005401989 0 -0.0053920568 -0.0006013507 0 
-0.0052725557 -0.0006602117 0 -0.0051421412 -0.0007163998 0 -0.0050014795 -0.0007695377 0 
-0.0048510161 -0.0008192564 0 -0.0046915387 -0.0008651991 0 -0.0045236237 -0.0009070249 0 
-0.0043481717 -0.0009444125 0 -0.0041658771 -0.000977064 0 -0.0039777397 -0.0010047086 0 
-0.003784554 -0.0010271061 0 -0.0035874 -0.0010440503 0 -0.0033871499 -0.0010553724 0 
-0.0031849406 -0.0010609434 0 -0.0029816948 -0.0010606776 0 -0.0027785783 -0.001054534 0 
-0.0025765336 -0.0010425193 0 -0.0023767236 -0.0010246892 0 -0.0021800768 -0.0010011498 0 
-0.0019877189 -0.0009720591 0 -0.0018005276 -0.0009376273 0 -0.0016195549 -0.0008981185 0 
-0.0014455899 -0.0008538504 0 -0.0012795736 -0.0008051952 0 -0.0011221676 -0.0007525801 0 
-0.000974164 -0.0006964884 0 -0.0008360587 -0.0006374599 0 -0.0007084575 -0.0005760934 0 
-0.0005916538 -0.0005130482 0 -0.0004860315 -0.0004490478 0 -0.0003916461 -0.0003848837 0 
-0.0003086269 -0.0003214207 0 -0.0002367603 -0.0002596041 0 -0.000175892 -0.0002004673 0 
-0.0001255132 -0.0001451423 0 -8.51629e-05 -9.48707e-05 0 -5.40161e-05 -5.10184e-05 0 
-3.12863e-05 -1.50921e-05 0 -1.58142e-05 1.12372e-05 0 -6.4718e-06 2.61105e-05 0 
-1.7539e-06 2.74171e-05 0 -1.928e-07 1.28318e-05 0 -2.277e-06 1.45094e-05 0 